/*--------------------------------*- C++ -*----------------------------------*\
| =========                 |                                                 |
| \\      /  F ield         | OpenFOAM: The Open Source CFD Toolbox           |
|  \\    /   Operation     | Version:  2306                                  |
|   \\  /    A nd           | Website:  www.openfoam.com                      |
|    \\/     M anipulation  |                                                 |
\*---------------------------------------------------------------------------*/
FoamFile
{
    version     2.0;
    format      ascii;
    class       volScalarField;
    location    "0";
    object      epsilon;
}
// * * * * * * * * * * * * * * * * * * * * * * * * * * * * * * * * * * * * * //

dimensions      [0 2 -3 0 0 0 0];

internalField   uniform 1e-5;

boundaryField
{
    inlet
    {
        type            inletOutlet;
        inletValue      uniform 1e-5;
        value           uniform 1e-5;
    }

    outlet
    {
        type            zeroGradient;
    }

    outlet2
    {
        type            zeroGradient;
    }

    outlet3
    {
        type            zeroGradient;
    }

    building
    {
        type            epsilonWallFunction;
        value           uniform 1e-5;
    }

    fixedpatchs
    {
        type            epsilonWallFunction;
        value           uniform 1e-5;
    }

    HF-1
    {
        type            epsilonWallFunction;
        value           uniform 1e-5;
    }
    HF-2
    {
        type            epsilonWallFunction;
        value           uniform 1e-5;
    }
    HF-3
    {
        type            epsilonWallFunction;
        value           uniform 1e-5;
    }
    HF-4
    {
        type            epsilonWallFunction;
        value           uniform 1e-5;
    }
    HF-5
    {
        type            epsilonWallFunction;
        value           uniform 1e-5;
    }
    HF-6
    {
        type            epsilonWallFunction;
        value           uniform 1e-5;
    }
    HF-7
    {
        type            epsilonWallFunction;
        value           uniform 1e-5;
    }
    HF-10
    {
        type            epsilonWallFunction;
        value           uniform 1e-5;
    }
    HF-11
    {
        type            epsilonWallFunction;
        value           uniform 1e-5;
    }
    HF-12
    {
        type            epsilonWallFunction;
        value           uniform 1e-5;
    }
    HF-17
    {
        type            epsilonWallFunction;
        value           uniform 1e-5;
    }
    HF-19
    {
        type            epsilonWallFunction;
        value           uniform 1e-5;
    }
    HF-21
    {
        type            epsilonWallFunction;
        value           uniform 1e-5;
    }
    HF-23
    {
        type            epsilonWallFunction;
        value           uniform 1e-5;
    }
    HF-24
    {
        type            epsilonWallFunction;
        value           uniform 1e-5;
    }
    HF-25
    {
        type            epsilonWallFunction;
        value           uniform 1e-5;
    }
    HF-26
    {
        type            epsilonWallFunction;
        value           uniform 1e-5;
    }
    HF-32
    {
        type            epsilonWallFunction;
        value           uniform 1e-5;
    }
    HF-33
    {
        type            epsilonWallFunction;
        value           uniform 1e-5;
    }
    HF-34
    {
        type            epsilonWallFunction;
        value           uniform 1e-5;
    }
    HF-35
    {
        type            epsilonWallFunction;
        value           uniform 1e-5;
    }
    HF-36
    {
        type            epsilonWallFunction;
        value           uniform 1e-5;
    }
    HF-37
    {
        type            epsilonWallFunction;
        value           uniform 1e-5;
    }
    HF-39
    {
        type            epsilonWallFunction;
        value           uniform 1e-5;
    }
    HF-60
    {
        type            epsilonWallFunction;
        value           uniform 1e-5;
    }
    HF-61
    {
        type            epsilonWallFunction;
        value           uniform 1e-5;
    }
    HF-62
    {
        type            epsilonWallFunction;
        value           uniform 1e-5;
    }
    HF-63
    {
        type            epsilonWallFunction;
        value           uniform 1e-5;
    }
    HF-64
    {
        type            epsilonWallFunction;
        value           uniform 1e-5;
    }
    HF-65
    {
        type            epsilonWallFunction;
        value           uniform 1e-5;
    }
    HF-66
    {
        type            epsilonWallFunction;
        value           uniform 1e-5;
    }
    HF-67
    {
        type            epsilonWallFunction;
        value           uniform 1e-5;
    }
    HF-68
    {
        type            epsilonWallFunction;
        value           uniform 1e-5;
    }
    HF-69
    {
        type            epsilonWallFunction;
        value           uniform 1e-5;
    }
    HF-70
    {
        type            epsilonWallFunction;
        value           uniform 1e-5;
    }
    HF-90
    {
        type            epsilonWallFunction;
        value           uniform 1e-5;
    }
    HF-91
    {
        type            epsilonWallFunction;
        value           uniform 1e-5;
    }
    HF-92
    {
        type            epsilonWallFunction;
        value           uniform 1e-5;
    }
    HF-94
    {
        type            epsilonWallFunction;
        value           uniform 1e-5;
    }
    HF-95
    {
        type            epsilonWallFunction;
        value           uniform 1e-5;
    }
    HF-96
    {
        type            epsilonWallFunction;
        value           uniform 1e-5;
    }
    HF-97
    {
        type            epsilonWallFunction;
        value           uniform 1e-5;
    }
    HF-WHTT-1
    {
        type            epsilonWallFunction;
        value           uniform 1e-5;
    }
    HF-WHTT-2
    {
        type            epsilonWallFunction;
        value           uniform 1e-5;
    }
    HF-WHTT-3
    {
        type            epsilonWallFunction;
        value           uniform 1e-5;
    }
    HF-WHTT-4
    {
        type            epsilonWallFunction;
        value           uniform 1e-5;
    }
    HF-WHTT-7
    {
        type            epsilonWallFunction;
        value           uniform 1e-5;
    }
    HF-WHTT-8
    {
        type            epsilonWallFunction;
        value           uniform 1e-5;
    }
    WHTT-6
    {
        type            epsilonWallFunction;
        value           uniform 1e-5;
    }
}

// ************************************************************************* //
